data.in.223156 (written by ASE) 

247 	 atoms 
2  atom types
0.0                    17.5  xlo xhi
0.0                    17.5  ylo yhi
0.0                    17.5  zlo zhi


Atoms 

     1   0   1   0.0                       0                       0                       0
     2   0   1   0.0                    1.75                    1.75                    1.75
     3   0   2   0.0                       0                       0                     3.5
     4   0   2   0.0                    1.75                    1.75                    5.25
     5   0   1   0.0                       0                       0                       7
     6   0   1   0.0                    1.75                    1.75                    8.75
     7   0   1   0.0                       0                       0                    10.5
     8   0   1   0.0                    1.75                    1.75                   12.25
     9   0   1   0.0                       0                       0                      14
    10   0   1   0.0                    1.75                    1.75                   15.75
    11   0   1   0.0                       0                     3.5                       0
    12   0   1   0.0                    1.75                    5.25                    1.75
    13   0   1   0.0                       0                     3.5                     3.5
    14   0   1   0.0                    1.75                    5.25                    5.25
    15   0   1   0.0                       0                     3.5                       7
    16   0   1   0.0                    1.75                    5.25                    8.75
    17   0   2   0.0                       0                     3.5                    10.5
    18   0   1   0.0                    1.75                    5.25                   12.25
    19   0   1   0.0                       0                     3.5                      14
    20   0   1   0.0                    1.75                    5.25                   15.75
    21   0   1   0.0                       0                       7                       0
    22   0   2   0.0                    1.75                    8.75                    1.75
    23   0   1   0.0                       0                       7                     3.5
    24   0   1   0.0                    1.75                    8.75                    5.25
    25   0   1   0.0                       0                       7                       7
    26   0   2   0.0                    1.75                    8.75                    8.75
    27   0   1   0.0                       0                       7                    10.5
    28   0   2   0.0                    1.75                    8.75                   12.25
    29   0   1   0.0                       0                       7                      14
    30   0   1   0.0                    1.75                    8.75                   15.75
    31   0   2   0.0                       0                    10.5                       0
    32   0   1   0.0                    1.75                   12.25                    1.75
    33   0   2   0.0                       0                    10.5                     3.5
    34   0   1   0.0                    1.75                   12.25                    5.25
    35   0   2   0.0                       0                    10.5                       7
    36   0   1   0.0                    1.75                   12.25                    8.75
    37   0   1   0.0                       0                    10.5                    10.5
    38   0   1   0.0                    1.75                   12.25                   12.25
    39   0   2   0.0                       0                    10.5                      14
    40   0   2   0.0                    1.75                   12.25                   15.75
    41   0   1   0.0                       0                      14                       0
    42   0   2   0.0                    1.75                   15.75                    1.75
    43   0   1   0.0                       0                      14                     3.5
    44   0   1   0.0                    1.75                   15.75                    5.25
    45   0   1   0.0                       0                      14                       7
    46   0   1   0.0                    1.75                   15.75                    8.75
    47   0   1   0.0                       0                      14                    10.5
    48   0   1   0.0                    1.75                   15.75                   12.25
    49   0   1   0.0                       0                      14                      14
    50   0   1   0.0                    1.75                   15.75                   15.75
    51   0   1   0.0                     3.5                       0                       0
    52   0   2   0.0                    5.25                    1.75                    1.75
    53   0   2   0.0                     3.5                       0                     3.5
    54   0   1   0.0                    5.25                    1.75                    5.25
    55   0   1   0.0                     3.5                       0                       7
    56   0   1   0.0                    5.25                    1.75                    8.75
    57   0   1   0.0                     3.5                       0                    10.5
    58   0   1   0.0                    5.25                    1.75                   12.25
    59   0   1   0.0                     3.5                       0                      14
    60   0   1   0.0                    5.25                    1.75                   15.75
    61   0   2   0.0                     3.5                     3.5                       0
    62   0   1   0.0                    5.25                    5.25                    1.75
    63   0   2   0.0                     3.5                     3.5                     3.5
    64   0   2   0.0                    5.25                    5.25                    5.25
    65   0   1   0.0                     3.5                     3.5                       7
    66   0   2   0.0                    5.25                    5.25                    8.75
    67   0   1   0.0                     3.5                     3.5                    10.5
    68   0   1   0.0                    5.25                    5.25                   12.25
    69   0   1   0.0                     3.5                     3.5                      14
    70   0   1   0.0                    5.25                    5.25                   15.75
    71   0   1   0.0                     3.5                       7                       0
    72   0   1   0.0                    5.25                    8.75                    1.75
    73   0   1   0.0                     3.5                       7                     3.5
    74   0   1   0.0                    5.25                    8.75                    5.25
    75   0   1   0.0                     3.5                       7                       7
    76   0   1   0.0                    5.25                    8.75                    8.75
    77   0   2   0.0                     3.5                       7                    10.5
    78   0   1   0.0                    5.25                    8.75                   12.25
    79   0   1   0.0                     3.5                       7                      14
    80   0   2   0.0                    5.25                    8.75                   15.75
    81   0   1   0.0                     3.5                    10.5                       0
    82   0   1   0.0                    5.25                   12.25                    1.75
    83   0   1   0.0                     3.5                    10.5                     3.5
    84   0   1   0.0                    5.25                   12.25                    5.25
    85   0   1   0.0                     3.5                    10.5                       7
    86   0   1   0.0                    5.25                   12.25                    8.75
    87   0   1   0.0                     3.5                    10.5                    10.5
    88   0   1   0.0                    5.25                   12.25                   12.25
    89   0   1   0.0                     3.5                    10.5                      14
    90   0   2   0.0                    5.25                   12.25                   15.75
    91   0   1   0.0                     3.5                      14                       0
    92   0   1   0.0                    5.25                   15.75                    1.75
    93   0   1   0.0                     3.5                      14                     3.5
    94   0   1   0.0                    5.25                   15.75                    5.25
    95   0   1   0.0                     3.5                      14                       7
    96   0   2   0.0                    5.25                   15.75                    8.75
    97   0   1   0.0                     3.5                      14                    10.5
    98   0   1   0.0                    5.25                   15.75                   12.25
    99   0   1   0.0                     3.5                      14                      14
   100   0   2   0.0                    5.25                   15.75                   15.75
   101   0   2   0.0                       7                       0                       0
   102   0   2   0.0                    8.75                    1.75                    1.75
   103   0   2   0.0                       7                       0                     3.5
   104   0   2   0.0                    8.75                    1.75                    5.25
   105   0   1   0.0                       7                       0                       7
   106   0   1   0.0                    8.75                    1.75                    8.75
   107   0   1   0.0                       7                       0                    10.5
   108   0   1   0.0                    8.75                    1.75                   12.25
   109   0   2   0.0                       7                       0                      14
   110   0   1   0.0                    8.75                    1.75                   15.75
   111   0   1   0.0                       7                     3.5                       0
   112   0   2   0.0                    8.75                    5.25                    1.75
   113   0   1   0.0                       7                     3.5                     3.5
   114   0   1   0.0                    8.75                    5.25                    5.25
   115   0   1   0.0                       7                     3.5                       7
   116   0   1   0.0                    8.75                    5.25                    8.75
   117   0   1   0.0                       7                     3.5                    10.5
   118   0   1   0.0                    8.75                    5.25                   12.25
   119   0   1   0.0                       7                     3.5                      14
   120   0   2   0.0                    8.75                    5.25                   15.75
   121   0   1   0.0                       7                       7                       0
   122   0   1   0.0                    8.75                    8.75                    1.75
   123   0   1   0.0                       7                       7                     3.5
   124   0   1   0.0                    8.75                    8.75                    5.25
   125   0   2   0.0                       7                       7                       7
   126   0   2   0.0                    8.75                    8.75                    8.75
   127   0   1   0.0                       7                       7                    10.5
   128   0   2   0.0                    8.75                    8.75                   12.25
   129   0   1   0.0                       7                       7                      14
   130   0   1   0.0                    8.75                    8.75                   15.75
   131   0   1   0.0                       7                    10.5                       0
   132   0   1   0.0                    8.75                   12.25                    1.75
   133   0   1   0.0                       7                    10.5                     3.5
   134   0   1   0.0                    8.75                   12.25                    5.25
   135   0   1   0.0                       7                    10.5                       7
   136   0   1   0.0                    8.75                   12.25                    8.75
   137   0   1   0.0                       7                    10.5                    10.5
   138   0   1   0.0                    8.75                   12.25                   12.25
   139   0   1   0.0                       7                    10.5                      14
   140   0   1   0.0                    8.75                   12.25                   15.75
   141   0   2   0.0                       7                      14                       0
   142   0   1   0.0                    8.75                   15.75                    1.75
   143   0   1   0.0                       7                      14                     3.5
   144   0   1   0.0                    8.75                   15.75                    5.25
   145   0   1   0.0                       7                      14                       7
   146   0   1   0.0                    8.75                   15.75                    8.75
   147   0   1   0.0                    8.75                   15.75                   12.25
   148   0   1   0.0                       7                      14                      14
   149   0   1   0.0                    8.75                   15.75                   15.75
   150   0   2   0.0                    10.5                       0                       0
   151   0   1   0.0                   12.25                    1.75                    1.75
   152   0   1   0.0                   12.25                    1.75                    5.25
   153   0   1   0.0                    10.5                       0                       7
   154   0   2   0.0                   12.25                    1.75                    8.75
   155   0   1   0.0                    10.5                       0                    10.5
   156   0   1   0.0                   12.25                    1.75                   12.25
   157   0   1   0.0                    10.5                       0                      14
   158   0   1   0.0                   12.25                    1.75                   15.75
   159   0   2   0.0                    10.5                     3.5                       0
   160   0   1   0.0                   12.25                    5.25                    1.75
   161   0   1   0.0                    10.5                     3.5                     3.5
   162   0   2   0.0                   12.25                    5.25                    5.25
   163   0   1   0.0                    10.5                     3.5                       7
   164   0   2   0.0                   12.25                    5.25                    8.75
   165   0   1   0.0                    10.5                     3.5                    10.5
   166   0   1   0.0                   12.25                    5.25                   12.25
   167   0   1   0.0                    10.5                     3.5                      14
   168   0   1   0.0                   12.25                    5.25                   15.75
   169   0   2   0.0                    10.5                       7                       0
   170   0   2   0.0                   12.25                    8.75                    1.75
   171   0   1   0.0                    10.5                       7                     3.5
   172   0   1   0.0                   12.25                    8.75                    5.25
   173   0   1   0.0                    10.5                       7                       7
   174   0   2   0.0                   12.25                    8.75                    8.75
   175   0   2   0.0                    10.5                       7                    10.5
   176   0   1   0.0                   12.25                    8.75                   12.25
   177   0   1   0.0                    10.5                       7                      14
   178   0   2   0.0                   12.25                    8.75                   15.75
   179   0   2   0.0                    10.5                    10.5                       0
   180   0   1   0.0                   12.25                   12.25                    1.75
   181   0   2   0.0                    10.5                    10.5                     3.5
   182   0   1   0.0                   12.25                   12.25                    5.25
   183   0   1   0.0                    10.5                    10.5                       7
   184   0   1   0.0                   12.25                   12.25                    8.75
   185   0   2   0.0                    10.5                    10.5                    10.5
   186   0   1   0.0                   12.25                   12.25                   12.25
   187   0   1   0.0                    10.5                    10.5                      14
   188   0   1   0.0                   12.25                   12.25                   15.75
   189   0   1   0.0                    10.5                      14                       0
   190   0   2   0.0                   12.25                   15.75                    1.75
   191   0   2   0.0                    10.5                      14                     3.5
   192   0   1   0.0                   12.25                   15.75                    5.25
   193   0   1   0.0                    10.5                      14                       7
   194   0   1   0.0                   12.25                   15.75                    8.75
   195   0   1   0.0                    10.5                      14                    10.5
   196   0   1   0.0                   12.25                   15.75                   12.25
   197   0   2   0.0                    10.5                      14                      14
   198   0   1   0.0                   12.25                   15.75                   15.75
   199   0   1   0.0                      14                       0                       0
   200   0   2   0.0                   15.75                    1.75                    1.75
   201   0   2   0.0                      14                       0                     3.5
   202   0   1   0.0                   15.75                    1.75                    5.25
   203   0   2   0.0                      14                       0                       7
   204   0   1   0.0                   15.75                    1.75                    8.75
   205   0   1   0.0                      14                       0                    10.5
   206   0   1   0.0                   15.75                    1.75                   12.25
   207   0   1   0.0                      14                       0                      14
   208   0   1   0.0                   15.75                    1.75                   15.75
   209   0   1   0.0                   15.75                    5.25                    1.75
   210   0   1   0.0                      14                     3.5                     3.5
   211   0   1   0.0                   15.75                    5.25                    5.25
   212   0   1   0.0                      14                     3.5                       7
   213   0   1   0.0                   15.75                    5.25                    8.75
   214   0   2   0.0                      14                     3.5                    10.5
   215   0   2   0.0                   15.75                    5.25                   12.25
   216   0   1   0.0                      14                     3.5                      14
   217   0   1   0.0                   15.75                    5.25                   15.75
   218   0   2   0.0                      14                       7                       0
   219   0   1   0.0                   15.75                    8.75                    1.75
   220   0   1   0.0                      14                       7                     3.5
   221   0   1   0.0                   15.75                    8.75                    5.25
   222   0   1   0.0                      14                       7                       7
   223   0   2   0.0                   15.75                    8.75                    8.75
   224   0   1   0.0                      14                       7                    10.5
   225   0   1   0.0                   15.75                    8.75                   12.25
   226   0   1   0.0                      14                       7                      14
   227   0   2   0.0                   15.75                    8.75                   15.75
   228   0   1   0.0                      14                    10.5                       0
   229   0   1   0.0                   15.75                   12.25                    1.75
   230   0   2   0.0                      14                    10.5                     3.5
   231   0   1   0.0                   15.75                   12.25                    5.25
   232   0   1   0.0                      14                    10.5                       7
   233   0   1   0.0                   15.75                   12.25                    8.75
   234   0   1   0.0                      14                    10.5                    10.5
   235   0   2   0.0                   15.75                   12.25                   12.25
   236   0   1   0.0                      14                    10.5                      14
   237   0   1   0.0                   15.75                   12.25                   15.75
   238   0   1   0.0                      14                      14                       0
   239   0   1   0.0                   15.75                   15.75                    1.75
   240   0   1   0.0                      14                      14                     3.5
   241   0   1   0.0                   15.75                   15.75                    5.25
   242   0   1   0.0                      14                      14                       7
   243   0   1   0.0                   15.75                   15.75                    8.75
   244   0   1   0.0                      14                      14                    10.5
   245   0   1   0.0                   15.75                   15.75                   12.25
   246   0   2   0.0                      14                      14                      14
   247   0   1   0.0                   15.75                   15.75                   15.75
